# vtk DataFile Version 5.1
Generated by LIGGGHTS
ASCII
DATASET POLYDATA
POINTS 50000 float
-0.00586698 -0.0288704 0.000499797 -0.00471648 -0.0291061 0.000499797 -0.00332645 -0.0293009 0.000497059 
-0.000712575 -0.0294782 0.00049639 -0.00847536 -0.0277292 0.000991715 -0.00733115 -0.0285636 0.000515254 
-0.00706726 -0.0275813 0.000499184 -0.00587028 -0.0276905 0.000489353 -0.00428795 -0.0282015 0.000494852 
-0.0026188 -0.0285985 0.000496605 -0.00141147 -0.0279005 0.000497992 -0.00237328 -0.0276296 0.000499463 
-0.000655225 -0.0276282 0.00108945 -7.78516e-05 -0.0281924 0.00049967 -0.0121486 -0.0263211 0.000997113 
-0.0104932 -0.026493 0.000499508 -0.0108433 -0.0274296 0.000499795 -0.00983564 -0.02727 0.000499331 
-0.00951089 -0.0266708 0.00123059 -0.00722002 -0.0267178 0.000979443 -0.00624999 -0.0267784 0.000641866 
-0.00482068 -0.0268289 0.00109376 -0.00346265 -0.0272609 0.000499776 -0.00267342 -0.0267233 0.000796282 
-0.00181073 -0.0263109 0.000492876 -0.001663 -0.0271107 0.00106532 -0.000838552 -0.0268274 0.000499797 
-0.0130767 -0.0252471 0.000498243 -0.0109488 -0.025571 0.000499681 -0.0100521 -0.0250723 0.000494575 
-0.00949802 -0.0259889 0.000499645 -0.00814742 -0.0255391 0.00099482 -0.00679328 -0.0259514 0.000499612 
-0.00591929 -0.025466 0.000497613 -0.00265143 -0.0257698 0.000496524 -0.00366265 -0.0260427 0.000499797 
-0.0164448 -0.023875 0.000994485 -0.0144575 -0.024942 0.000992719 -0.0120172 -0.0249119 0.000499755 
-0.0122444 -0.0239284 0.000498509 -0.0112868 -0.0249236 0.00118248 -0.00678135 -0.0244495 0.00049955 
-0.00574889 -0.0241794 0.000499797 -0.00448404 -0.0248662 0.000997446 -0.00255479 -0.0243628 0.000995704 
-0.00114126 -0.024335 0.000498732 -0.000196037 -0.0242473 0.00120902 -0.0179356 -0.0232755 0.000499797 
-0.0144135 -0.0229487 0.00099169 -0.013015 -0.0232898 0.000499797 -0.0108926 -0.0234884 0.000996413 
-0.00968813 -0.0227172 0.000499568 -0.00855715 -0.0235682 0.000995525 -0.00715112 -0.0233537 0.000493132 
-0.00525332 -0.0226801 0.00092164 -0.0049694 -0.0235395 0.00049844 -0.0037217 -0.0227432 0.000991565 
-0.00118778 -0.022909 0.000994637 -0.0192734 -0.0223116 0.000498197 -0.017598 -0.0220108 0.000499797 
-0.0168964 -0.0212745 0.000499797 -0.0151779 -0.0217583 0.00049821 -0.0160774 -0.0223079 0.000490214 
-0.0144474 -0.0212853 0.000988478 -0.0136984 -0.0217286 0.000498028 -0.012858 -0.0223018 0.000499797 
-0.0118018 -0.0222736 0.000499797 -0.00957097 -0.0217201 0.000497733 -0.00860971 -0.022157 0.000497104 
-0.00779267 -0.022041 0.00106161 -0.00700394 -0.0222881 0.000499056 -0.00592373 -0.022071 0.000498707 
-0.00501868 -0.021585 0.000499797 -0.00385759 -0.0213086 0.000493222 -0.00289981 -0.0215893 0.000499383 
-0.00190105 -0.0216096 0.000496563 -0.00240509 -0.0220696 0.00122169 -1.87126e-05 -0.0215401 0.000842354 
-0.000936856 -0.0213487 0.000499157 -0.0216323 -0.0200481 0.000499439 -0.0190677 -0.0200521 0.000494088 
-0.0198753 -0.0211133 0.00116595 -0.0185456 -0.0210251 0.000493327 -0.0176263 -0.0205261 0.000499797 
-0.0157198 -0.0204525 0.000999355 -0.0137005 -0.0206615 0.000498951 -0.0106654 -0.0208237 0.000988543 
-0.00854622 -0.0207458 0.000995889 -0.00542718 -0.0203364 0.000496836 -0.00309384 -0.0205126 0.000499797 
-0.00124465 -0.0206447 0.0011385 -0.0222945 -0.0192991 0.000509468 -0.0216275 -0.0193854 0.00124813 
-0.0201687 -0.0191485 0.000997565 -0.0181634 -0.0189463 0.000989861 -0.0167807 -0.0195178 0.000498519 
-0.0126412 -0.0199162 0.000497207 -0.0115565 -0.0195525 0.000499797 -0.00981879 -0.0196606 0.00049816 
-0.00832105 -0.0193482 0.000499738 -0.0077842 -0.0188297 0.00118982 -0.00707555 -0.0189637 0.000497718 
-0.00735717 -0.0199231 0.000498403 -0.00572068 -0.0192056 0.000496436 -0.00412799 -0.0197718 0.000496161 
-0.00323158 -0.0191456 0.000499393 -0.00333584 -0.019828 0.00122167 -0.00182055 -0.0192677 0.000992187 
-0.000488162 -0.0197507 0.000499596 -0.0229365 -0.0185333 0.000499442 -0.0225707 -0.0176267 0.000707872 
-0.0218889 -0.0183843 0.000499758 -0.0200651 -0.0177413 0.000494181 -0.0209671 -0.0178798 0.00099353 
-0.0193018 -0.0179359 0.00110248 -0.0166742 -0.0183153 0.000499692 -0.0157634 -0.0187302 0.000495227 
-0.0154778 -0.0175689 0.000499797 -0.0146282 -0.0183179 0.000494457 -0.0132579 -0.0186429 0.000995893 
-0.0104845 -0.0184154 0.000998354 -0.00907033 -0.018432 0.000499515 -0.00763887 -0.0180878 0.000499797 
-0.00841005 -0.0180516 0.00114659 -0.00479868 -0.0187218 0.000499797 -0.00474753 -0.0176186 0.000499797 
-0.00384551 -0.0181274 0.000499797 -0.00279837 -0.018245 0.000497522 -0.000540113 -0.0184961 0.00109999 
-0.000177823 -0.0177849 0.000499213 -0.0237062 -0.0166905 0.00099526 -0.0216325 -0.0173223 0.000499381 
-0.0222084 -0.0166419 0.000950369 -0.0205426 -0.0164161 0.000991488 -0.018351 -0.0173694 0.000499797 
-0.0171633 -0.0172961 0.000499797 -0.0165502 -0.0165019 0.000491831 -0.014371 -0.0173541 0.000499631 
-0.0134837 -0.0166987 0.000499797 -0.0126094 -0.0172069 0.000494975 -0.0110707 -0.0164936 0.000996834 
-0.00908399 -0.0167207 0.00099396 -0.00689161 -0.0174215 0.000499739 -0.0064209 -0.0168872 0.00120165 
-0.00510884 -0.0166379 0.000498785 -0.00584843 -0.017311 0.000499786 -0.00604814 -0.0162805 0.000499739 
-0.00369493 -0.0166713 0.000994517 -0.00177 -0.0172732 0.000988509 -0.000260397 -0.0169891 0.00109709 
-0.000737525 -0.0163002 0.000499797 -0.0244933 -0.0154459 0.000499797 -0.0225206 -0.0158084 0.000496668 
-0.0193001 -0.015587 0.0010789 -0.0199985 -0.015069 0.000499797 -0.0183619 -0.0160686 0.000496669 
-0.0186351 -0.0150746 0.000499797 -0.0172093 -0.0152561 0.000996705 -0.0150959 -0.0161404 0.000994629 
-0.0132439 -0.0152945 0.000995546 -0.0106778 -0.0151223 0.000499797 -0.00921192 -0.0153088 0.000499797 
-0.00730081 -0.0156134 0.000988903 -0.00593752 -0.0151893 0.000499617 -0.0050211 -0.0156363 0.000499758 
-0.00435882 -0.0153403 0.0011879 -0.00278849 -0.0155414 0.000499797 -0.000292679 -0.0153998 0.000499797 
-0.0256614 -0.0145404 0.000499313 -0.0239878 -0.0143945 0.000499797 -0.0248697 -0.0142238 0.00101975 
-0.0230315 -0.0148899 0.000499797 -0.0214015 -0.0138575 0.00116457 -0.0206551 -0.0138723 0.000499643 
-0.0210062 -0.0148805 0.000499797 -0.0196804 -0.0140955 0.000492237 -0.0184404 -0.0142191 0.000996649 
-0.0158334 -0.0149326 0.000498397 -0.0153254 -0.0143995 0.00117224 -0.0137805 -0.0139691 0.000499797 
-0.0145561 -0.0147494 0.000499797 -0.0117898 -0.0148018 0.000499797 -0.0123183 -0.0141163 0.00102453 
-0.00877854 -0.0143465 0.000499467 -0.00979852 -0.0144922 0.000496323 -0.00938078 -0.0137858 0.00106747 
-0.00770657 -0.0142615 0.00049525 -0.00455484 -0.014642 0.000499708 -0.00331781 -0.0145958 0.000491763 
-0.00155099 -0.0147392 0.00099353 -0.0258425 -0.0130877 0.000995963 -0.0244432 -0.0133936 0.000499797 
-0.023902 -0.0125474 0.000496747 -0.022843 -0.0134814 0.000991488 -0.0213752 -0.0125432 0.000499672 
-0.0199262 -0.0126602 0.000998504 -0.0187224 -0.0134004 0.000498825 -0.0172914 -0.0132573 0.000998588 
-0.0158768 -0.0127441 0.000499797 -0.0149204 -0.0130515 0.000499797 -0.013751 -0.0128953 0.00049309 
-0.0123636 -0.0132697 0.00049691 -0.0109078 -0.0136092 0.000990236 -0.00962774 -0.0130025 0.000497229 
-0.00775883 -0.0135502 0.00120303 -0.00701372 -0.0134576 0.000499797 -0.00558885 -0.0136734 0.00099213 
-0.00455989 -0.012595 0.000848864 -0.00340819 -0.0132887 0.000499797 -0.00250491 -0.012848 0.000499797 
-0.00158239 -0.013331 0.000495497 -0.00105761 -0.0127322 0.00109405 -0.000623216 -0.013652 0.000499797 
-0.000149982 -0.0131267 0.00122329 -0.0268663 -0.0121155 0.000499243 -0.0248073 -0.0121264 0.000496482 
-0.0240962 -0.0113501 0.000499256 -0.022849 -0.0118959 0.000499686 -0.0216402 -0.0115778 0.000499749 
-0.0221732 -0.0120083 0.00122791 -0.0182019 -0.0115229 0.000497636 -0.0144176 -0.0116515 0.000991749 
-0.0123568 -0.0118587 0.000995529 -0.010964 -0.0121045 0.000499038 -0.00996214 -0.0120444 0.000499758 
-0.00844319 -0.0122337 0.000993635 -0.0070172 -0.0124074 0.000495031 -0.00720165 -0.0114165 0.000499797 
-0.00572469 -0.0116648 0.000999575 -0.003669 -0.0123227 0.000494361 -0.00268258 -0.0118636 0.000499797 
-0.00132879 -0.0112637 0.000998352 -0.000302944 -0.0124558 0.000499091 -0.0272727 -0.0112056 0.000498491 
-0.0271503 -0.010216 0.000506177 -0.0254445 -0.0108656 0.000987482 -0.0225384 -0.0109454 0.000499795 
-0.0221716 -0.0100127 0.000499797 -0.0201569 -0.011038 0.000493055 -0.0191754 -0.0112292 0.000499797 
-0.0166374 -0.0109988 0.000993635 -0.0149264 -0.0103329 0.000497475 -0.013317 -0.0106088 0.00049668 
-0.0113987 -0.0107282 0.000499782 -0.0123433 -0.0103804 0.000499743 -0.0104066 -0.0108858 0.000499674 
-0.00954574 -0.0112201 0.000883102 -0.00870313 -0.0108435 0.00049857 -0.00745113 -0.010436 0.000499775 
-0.00656091 -0.0104213 0.000953692 -0.00564192 -0.0102527 0.000493388 -0.00465931 -0.010716 0.000496771 
-0.0028972 -0.0108812 0.000493593 -0.000307268 -0.0102906 0.000495371 -0.027926 -0.00948143 0.000496088 
-0.027002 -0.0092736 0.000796265 -0.0251551 -0.00928313 0.000499682 -0.0261085 -0.009612 0.000499797 
-0.0242747 -0.00996182 0.000499797 -0.0232622 -0.00978917 0.000498116 -0.0223456 -0.00901035 0.000499797 
-0.0207187 -0.00928946 0.000994373 -0.0184864 -0.00996846 0.000994031 -0.0157468 -0.00941555 0.000498258 
-0.0139794 -0.0091019 0.000499797 -0.011663 -0.00998892 0.00111911 -0.0110964 -0.00944571 0.000499739 
-0.00969074 -0.00963739 0.000989473 -0.00830804 -0.00992184 0.000495527 -0.00813898 -0.00918748 0.00114856 
-0.00739032 -0.00910098 0.00049723 -0.00649031 -0.0095346 0.000498359 -0.00375893 -0.00993232 0.000499797 
-0.00484053 -0.00929451 0.000499753 -0.00433815 -0.00881468 0.00121887 -0.003654 -0.00893532 0.000499753 
-0.00238505 -0.00956782 0.00099049 -0.000722857 -0.00943437 0.000792095 -0.0284345 -0.00783686 0.000499673 
-0.027563 -0.00840723 0.000497099 -0.0264298 -0.00851543 0.000492283 -0.0265596 -0.00752421 0.000499726 
-0.0250892 -0.00773498 0.000499797 -0.023908 -0.00853203 0.000998309 -0.0220551 -0.00762177 0.000998756 
[...]
POINT_DATA 50000
FIELD FieldData 3
id 1 50000 int
574 1471 1466 934 49 2131 1704 2125 1451 
744 2192 1539 2098 26678 164 1688 2073 1999 
769 1407 557 41 1010 2002 1293 1799 1103 
1750 1289 1889 544 358 1148 830 1638 2039 
269 496 923 1368 1085 2153 1926 485 223 
2209 824 1143 58 1925 59 1573 19 1757 
2083 1579 451 374 548 577 1771 723 1590 
738 801 1374 1842 507 751 764 1331 1265 
579 1319 809 901 1175 26930 1640 555 619 
100 1212 2196 268 1536 267 142 1645 2123 
1019 1157 2140 341 1 1286 1521 2000 839 
1580 1356 1618 1613 1420 1508 1878 1079 145 
1902 1035 1665 938 1542 505 1937 1963 1936 
584 1061 84 121 1478 1431 1482 1182 881 
1566 1366 798 26311 454 898 1088 52 855 
670 2045 1315 989 1342 339 203 1154 993 
790 1344 1397 226 147 1882 26615 1272 1067 
1074 1656 642 1743 291 434 146 1170 2180 
224 719 909 566 1748 26733 595 513 2056 
1706 1039 2041 2197 984 2170 1817 1694 875 
1358 1764 979 1149 1391 1237 1188 704 803 
212 126 1625 520 346 1442 499 2172 75 
603 1690 960 1615 215 647 1818 1814 483 
1552 1221 1851 921 1790 2217 1224 1493 1472 
2187 2154 1073 1081 1191 495 111 1390 990 
10 1897 1429 347 1515 1305 270 729 722 
1541 283 1634 806 1049 920 237 623 610 
1898 1527 1213 546 588 1526 1822 899 1564 
727 1317 1575 1803 815 893 1905 1030 1459 
491 338 561 543 1944 1675 361 860 1700 
1488 1647 2151 2036 728 1722 393 699 2121 
1475 1705 1770 1004 390 335 1828 1950 136 
889 1070 1956 1843 102 1792 502 891 185 
1012 1622 1164 430 1096 1514 991 1430 1801 
1434 1336 2 1101 1568 1388 971 1829 1060 
1968 928 1530 2171 1710 951 523 542 1692 
1027 2040 232 765 668 27 1875 1957 585 
1857 294 2075 281 1155 255 487 638 1152 
805 1682 724 435 1159 636 1016 1933 1916 
1780 622 634 1275 2008 713 1068 2055 373 
92 597 1516 2052 568 1064 961 1015 1662 
712 460 480 1661 1832 1941 1991 2137 274 
1755 167 1698 669 1300 1347 1556 1180 1649 
878 32 501 1754 1838 1092 13660 395 1734 
1510 1603 853 2126 1186 95 1083 2175 1112 
1570 94 1104 1725 1386 1230 515 2099 745 
1931 810 25701 14335 1687 1686 1065 2191 842 
13112 1028 1938 13680 1833 1768 711 1880 832 
1304 13070 250 962 14492 1955 592 1484 702 
13814 2030 1713 2072 1856 1642 882 440 1090 
1804 1826 1001 834 492 472 1479 575 527 
1940 2097 708 163 915 1531 1836 1054 1209 
1436 521 1408 256 1489 53 1140 1904 1786 
680 1047 195 975 1349 1000 131 589 663 
1048 1707 1495 1252 2092 947 2117 1744 649 
1179 424 234 1196 1122 1845 1868 1345 826 
17 873 653 1248 453 1586 1961 700 2111 
1712 1918 1078 969 767 1554 687 617 1142 
2058 565 258 2138 90 2077 8 307 1667 
977 866 910 1151 1959 2087 1259 330 1737 
734 1032 1644 1241 1348 2110 1910 1830 1577 
1654 633 658 925 316 2026 861 2062 1324 
54 5 1189 1377 746 1276 1523 1220 87 
244 763 243 1055 1428 352 594 1005 1216 
1219 620 336 1899 1555 1621 1973 1278 591 
742 1599 2142 391 2146 570 741 1886 1284 
1623 1383 1983 47 637 24 397 945 2003 
1139 733 939 1394 974 1559 1673 26 852 
1202 563 1245 736 420 857 758 1236 1524 
693 205 419 1225 856 473 689 937 664 
1855 1805 33 1421 1593 978 2179 1583 2009 
2136 1193 606 1238 1551 1848 1443 1412 1960 
2166 260 296 587 2024 1800 517 1432 133 
1610 68 1660 3 503 1447 682 1915 982 
1864 710 995 776 2143 1745 1239 987 1496 
1711 484 1942 1486 1022 99 615 1172 2145 
300 2213 206 541 1052 180 1752 219 688 
1679 1454 469 1759 512 1861 1978 74 1105 
789 1503 607 660 1341 1652 262 1211 1862 
1229 1233 573 342 1731 2020 2188 1273 1313 
50 519 583 1511 288 1244 1056 717 1616 
576 562 160 442 935 1141 1984 2199 1650 
43 1253 695 222 1934 2105 449 802 25 
69 1558 613 1891 1338 2190 1203 1038 176 
2186 2101 1325 698 1696 389 1355 456 1323 
2162 2012 1721 1125 2218 1719 869 380 78 
1427 820 1456 1107 2082 494 1709 1181 1883 
1606 9 1254 1939 375 1522 540 967 365 
1720 1046 13848 14177 13519 301 1051 796 1609 
12929 486 1557 808 13507 1998 1807 1257 874 
2204 970 2160 378 2006 707 1901 1971 13736 
101 1544 600 927 1024 1452 183 1100 2221 
2118 559 1591 214 1788 868 1532 739 1664 
794 1184 844 286 1592 2066 1952 153 1683 
1008 218 1138 362 848 1267 314 408 2019 
1839 1518 1729 1401 366 1595 2113 468 1815 
2216 57 1879 616 31 851 877 1309 1633 
1399 455 983 1823 369 264 118 911 917 
1318 529 2208 1922 1031 2095 2060 124 308 
752 1894 1346 2011 319 1733 220 732 1036 
1477 948 1136 655 1353 477 1190 1256 804 
40 325 323 671 1094 906 972 996 25586 
2207 350 516 2078 1761 202 2163 1059 1994 
1023 221 132 2084 1379 902 1091 569 1840 
413 954 76 1098 344 759 788 4 2130 
161 675 1075 2053 662 1411 329 1852 1389 
1235 1133 2185 230 1413 333 904 1520 756 
1080 2141 2089 1110 355 903 2094 178 1697 
2106 761 1528 327 1717 534 343 208 504 
1296 1920 2165 293 439 189 709 1099 1207 
918 2124 1903 429 384 130 811 2059 182 
1158 1332 1958 13 1884 446 1042 1306 309 
1624 1173 1160 1187 2069 2109 2063 1246 845 
884 72 2038 450 177 1762 1124 1026 1988 
753 444 1693 392 88 348 407 1044 356 
750 1114 1863 784 481 1876 1200 1680 2085 
1701 1009 1553 280 2158 684 240 148 254 
247 2119 2205 119 2010 1470 404 1474 103 
1975 1337 718 2018 77 1249 1351 506 1746 
1929 876 199 1445 2025 1491 1302 1569 1231 
596 1927 950 952 489 907 1881 706 777 
1007 372 1316 1986 1334 1765 1130 349 144 
490 112 441 190 1438 1497 646 2184 196 
601 459 2043 602 1715 1314 1932 65 1082 
847 364 1724 627 912 1584 1369 999 1547 
1214 1695 298 2065 994 1311 181 2222 558 
476 554 1747 216 1684 652 108 1387 1699 
265 166 2169 1089 2074 1260 45 1546 2133 
282 266 957 310 674 2155 968 1467 1877 
514 1312 1295 1935 246 985 1775 1545 2054 
2104 12921 645 1635 2159 2015 1003 819 614 
197 13191 1987 1964 1298 13810 775 1835 1111 
760 13079 322 1670 1890 2014 1655 193 1208 
1283 14332 625 1854 1594 1797 1912 696 2122 
1461 940 946 1307 1906 302 1169 500 122 
175 1292 835 1131 943 1702 331 1774 448 
1600 1414 1760 1913 1352 2212 1895 1137 2076 
1418 2100 552 64 16 26960 871 1106 18 
926 238 6 1076 34 1787 277 1185 2193 
1506 1261 932 2214 1118 1637 678 191 405 
1458 1732 2022 773 438 726 162 843 827 
2200 1751 644 812 42 1464 980 1367 2034 
1320 1620 525 1820 1403 997 919 73 2114 
1865 1548 2051 508 762 828 1708 1192 1549 
245 414 1681 524 715 831 48 2149 171 
1658 23 239 1108 509 1831 209 1678 1416 
624 2224 1992 464 725 959 958 2120 1629 
1077 735 56 263 1404 2033 1967 1072 630 
225 1468 1415 89 1422 115 1485 1735 1997 
821 528 1363 1365 2091 580 188 1258 1668 
1982 849 1174 1643 81 1033 1727 1869 114 
55 631 412 1168 174 1242 1540 285 1954 
403 2016 1776 672 231 850 1132 44 1921 
1330 2037 192 1753 1769 98 865 838 1361 
1981 2152 1171 1071 814 1310 1045 768 2070 
916 1947 371 2206 105 1972 536 1614 60 
510 1819 1343 1373 781 1923 1498 1402 1375 
973 1150 2048 1285 2223 370 497 676 38 
85 1657 538 786 1979 431 1995 599 721 
83 1183 279 681 1481 1504 772 1057 173 
1465 1291 840 2219 1928 1908 1791 475 1134 
1977 1509 2129 125 817 1943 1689 1255 2047 
1567 1063 46 795 1873 930 150 1945 276 
377 730 411 290 498 401 813 2176 1176 
743 892 1299 1847 328 1425 1859 556 2202 
532 841 944 2194 317 1126 194 1117 1396 
452 1596 1507 26317 964 1247 2096 470 1210 
1069 1919 138 1290 382 2079 128 1135 36 
1234 1588 1439 1535 1636 2173 1473 428 1043 
2156 887 2220 1053 332 774 21 67 2139 
1446 1410 966 1798 864 1949 986 1087 1728 
1714 1378 140 354 1227 1617 1813 388 885 
113 2150 37 628 571 169 107 981 1250 
1398 387 381 1113 924 641 406 1874 1362 
823 694 482 13020 1585 703 1381 886 1537 
1393 1550 13185 278 1630 1492 1501 1029 25998 
1519 1364 632 2071 1490 3447 2013 4888 1093 
409 154 2031 779 474 567 1767 2132 941 
643 1578 14 883 5162 1218 157 1409 1659 
1598 1264 1321 1372 2201 1812 1677 1969 1989 
135 1206 1014 15 854 1612 1783 445 1384 
3329 315 1796 578 1756 127 822 1892 896 
1058 493 656 1691 229 326 955 2211 511 
478 667 1017 1340 1161 1392 846 79 791 
1738 2050 91 1462 1011 1538 242 799 1517 
870 1850 123 1437 1359 1674 1166 1426 1476 
1435 1423 1145 837 29 1433 1360 337 1450 
1146 463 187 673 2107 257 1457 771 537 
1129 635 890 1469 1223 2086 2178 1177 2044 
2144 618 757 2057 900 1327 1685 1781 236 
880 1121 598 25650 894 106 1013 1222 1194 
1726 551 1280 299 1198 155 770 466 1911 
2135 1301 1605 659 421 1163 1460 621 51 
1440 1866 1962 252 184 648 467 547 1417 
30 117 284 134 629 1611 1499 272 976 
2127 965 2103 1406 217 800 2004 651 1040 
533 560 61 1953 172 539 836 1395 2102 
2067 1297 1837 311 200 1802 650 367 530 
1448 198 936 1199 586 666 422 139 2042 
2198 479 1204 2147 2088 27048 1601 1974 318 
1782 654 20 531 2134 5913 82 158 312 
321 545 4809 1793 1758 179 679 26226 471 
436 2195 1576 1582 3759 141 581 241 1885 
2115 863 897 692 888 1480 1269 340 657 
1860 747 929 345 749 905 526 1816 129 
572 535 1277 1794 690 427 2210 1354 259 
26337 39 1872 275 661 488 22 2061 807 
1930 86 1740 320 1062 2116 1525 425 1380 
63 1666 1041 213 2167 385 1811 3568 872 
11 2203 1777 357 1487 143 862 1197 1205 
1271 1228 737 582 1907 612 461 5205 1500 
1563 933 1502 1097 1322 26420 1602 334 1893 
1589 1268 2181 1672 35 1896 233 605 261 
833 368 4244 549 1534 383 1303 1779 2093 
1021 1294 1167 447 1951 677 1288 1153 1037 
152 1350 1562 5121 5110 1742 2161 787 379 
1357 1639 253 14523 691 908 13746 626 18269 
2189 686 1739 13980 1571 1339 1483 1900 1858 
1281 400 1809 295 415 1266 1560 1329 4164 
14145 13395 720 1985 13872 931 3967 1226 4180 
4447 3641 376 1251 2849 1512 3963 3954 1165 
3544 2182 2746 3820 5119 5277 1050 151 4002 
359 683 1116 3428 66 1147 1102 5714 4281 
4387 1917 740 3504 2049 416 701 3510 639 
1095 793 2029 1449 1663 2080 227 2028 1619 
5017 5556 829 1371 201 780 5778 93 611 
553 5492 109 1370 292 4516 5545 4827 564 
1128 1867 2064 1608 714 697 1887 170 3245 
1641 3815 5734 3516 4777 1825 1119 4385 913 
818 1844 457 1120 249 5274 1115 5503 522 
4482 5027 1382 3484 5764 297 4761 1419 2148 
1529 1841 2005 168 6222 1607 518 4975 4737 
1308 4125 6037 792 3894 5605 433 1646 590 
1909 306 4612 998 2164 4945 1217 1109 4440 
235 1849 3463 1846 1572 437 3804 1262 1778 
867 71 1808 207 465 1741 418 410 5065 
3761 1376 1274 1789 825 4429 1914 4523 3853 
26724 1084 1871 3565 5278 1772 1766 1627 4076 
1453 2177 1824 351 462 1326 604 4905 2007 
5474 685 5511 402 797 5573 1543 5167 5549 
1703 28 705 1156 3220 1736 458 1924 1965 
3636 1671 748 4190 1565 716 1810 360 5972 
4008 2183 942 116 5800 1749 159 5459 3668 
3301 4521 5243 3679 4533 2017 5157 5233 1240 
1996 1888 4327 755 248 3380 754 1948 5060 
1651 303 2773 120 97 1990 5404 1066 5458 
62 922 4028 289 2926 399 3148 988 1513 
1201 4108 6105 5284 1669 1795 1123 2168 1455 
5409 2090 353 3946 287 1993 149 593 4304 
4535 1626 4917 1604 186 2894 3419 4607 3832 
1282 2108 251 2869 4241 423 1400 1581 12 
2027 398 80 1718 4273 6185 156 1215 1243 
4806 1806 3398 2001 859 5950 4356 1025 1784 
228 609 550 1195 895 4768 3198 1763 1730 
949 110 1821 2035 4750 3935 4724 70 7 
4879 6023 6079 778 5297 271 4643 6108 4478 
5550 1494 5787 3267 3627 5015 5138 3775 1785 
5569 1333 766 2032 1127 1773 1716 5112 3242 
386 2174 305 1853 2215 5525 210 2021 394 
4403 5163 5288 1335 1086 25430 3919 5154 1441 
6046 3978 1631 1870 956 432 640 2023 3985 
2128 324 782 3539 963 304 3688 3617 3846 
273 2742 3381 5834 5843 5872 363 1834 211 
5655 6196 4121 2625 3166 4728 426 1597 3234 
2503 104 4769 4600 26652 137 1034 1263 15643 
5710 5766 1463 4544 1287 3452 4567 5962 1270 
16041 443 18275 3262 5662 3272 3172 3706 4505 
5012 5623 3496 5833 2626 4935 3536 4406 5725 
5997 4200 3914 4099 3096 6220 5076 2236 2868 
2812 2293 4811 3343 4966 4889 4791 5241 4557 
5634 2464 3055 2362 3084 2610 4901 3072 5994 
3875 5434 5247 5063 2880 5437 6076 5891 5500 
2449 3129 3308 4287 2909 3142 4522 4514 2273 
5512 3114 29425 3506 4955 3585 3926 6128 2653 
3103 3306 6035 3714 4594 5607 6018 5005 5877 
2927 4257 2294 3375 5865 165 3753 3079 5188 
5530 5954 4144 3323 5987 6162 2580 5711 5753 
5688 5664 3803 5007 30720 5084 5535 4439 5136 
5893 6195 4765 5493 3781 6050 1970 2680 6092 
3261 3702 2721 5737 2380 3710 2608 4216 2690 
2443 4650 3159 6205 2794 3885 5829 4393 5276 
4084 5116 4277 3915 4175 5694 6107 4357 6225 
5658 2606 5391 4682 4692 2332 5100 2985 3124 
5151 5570 5454 204 2544 4174 4308 4735 3535 
5022 4616 6164 2845 3984 6101 4336 3058 3330 
3328 2853 5973 4510 5548 4481 5341 3958 3195 
5580 4754 4080 3000 4592 3783 3132 3023 5608 
2708 5099 2255 5946 5011 5078 2793 3613 2562 
5145 6081 396 2629 5563 5115 2387 4222 5406 
4799 3399 3200 5728 4605 5189 4065 4139 5659 
5835 5375 2157 3492 4551 3456 4820 5696 4461 
5783 6055 6089 5356 2378 2275 2590 2557 3056 
4991 2933 4693 3888 5235 3109 5562 4774 5966 
6119 2685 5531 2911 5449 5037 5641 5896 3643 
5903 4438 5365 3971 5097 5130 4006 4027 4931 
2667 5399 4684 2420 4124 5132 3303 2671 2636 
5539 4023 3015 2959 3212 5654 2391 3809 4455 
4859 2532 5250 5049 3931 3657 5965 5490 3327 
3945 4030 5752 3673 3834 5201 4561 4855 2856 
2614 3268 5518 4161 5704 4233 6080 313 4020 
3986 3664 3433 4106 2962 2329 3001 1980 4181 
6014 2283 3090 5382 6007 2352 5792 4858 3750 
5889 4266 4666 2526 3094 4235 2304 5422 5173 
4669 4785 2811 3591 4597 5859 6009 2756 5251 
6091 4584 4674 2740 31093 5922 5603 2338 5089 
3222 4780 3989 6087 5647 2844 6066 4589 3146 
953 4061 5141 5671 3241 3411 3406 6228 1966 
5729 2647 6042 4239 5475 4877 3921 5526 6189 
4004 858 2873 3549 2966 5907 5424 3494 5460 
5505 2650 2538 6000 3125 3843 6045 6078 3937 
5652 4330 3415 3012 6020 5802 6150 3620 2956 
3622 16190 5035 3486 4981 4763 4042 18114 3334 
3461 4832 3628 18251 16076 2630 2816 16978 3017 
4626 4253 3735 3983 3296 5670 5003 3583 6126 
3367 5782 2300 5506 4690 4171 4247 3828 3703 
5264 3719 4776 2479 6043 3594 2459 4623 4296 
30743 4213 2305 3545 3233 2743 2655 4711 29661 
5056 2973 3782 4548 2432 3207 4221 5791 5743 
5547 3808 5498 3776 3180 5033 3524 4987 6181 
6041 6115 5306 3850 4055 3035 5542 4347 4113 
6015 2789 2758 6187 4186 6054 5686 4203 4716 
2389 4995 4701 3294 3393 5413 4126 5824 3741 
4152 5030 4242 5090 5062 6112 3324 3390 5300 
3878 4343 5705 3590 2885 5198 2781 3852 3580 
5886 4738 4519 5476 3465 3619 2678 5775 5255 
3436 5072 4184 5969 4441 3027 2319 6168 5303 
4667 3048 2839 3190 3612 5884 4283 3806 4154 
5210 3108 4066 3801 3890 4155 6179 6176 4862 
3355 4384 3932 2829 2295 4610 3136 3107 3522 
4047 5181 5589 3286 3312 2507 2398 3500 5748 
4571 5477 3490 4916 5709 2430 4448 3152 2463 
2658 4990 6177 6203 2488 2461 6084 6151 4401 
4024 2572 3953 5928 4585 3592 5929 4652 2785 
5122 3217 4192 29283 4659 4542 6148 3867 5881 
5857 4364 4147 3031 2983 2433 4430 2477 4615 
6188 5128 4869 5020 5123 3416 3848 5215 2279 
6154 5612 4752 3295 3895 5604 5334 4582 3237 
4245 4022 5648 2371 5469 4745 4167 28050 5082 
3577 4618 3305 3405 2954 2947 4723 5909 4299 
3005 2597 6032 3659 3552 2846 6130 3640 3007 
30930 3115 4864 4177 4847 4790 3951 6142 4621 
2339 2408 5538 4595 5309 6062 2924 4851 4189 
30175 30652 3488 5853 2652 4841 3528 4137 5561 
3404 5045 2372 2347 2638 3907 4479 6160 2820 
4069 5911 4389 4840 4208 2524 5227 3736 5544 
4307 5689 6118 4880 4000 6209 3746 4382 4856 
4742 5502 4802 3623 2454 5790 2825 3236 4102 
4443 4508 4601 3045 5349 3149 3476 3661 3118 
2232 6063 2796 4302 3992 4973 5040 4354 2683 
4685 4480 3977 2907 4965 2999 4036 5888 4624 
4358 3119 5018 3534 5876 2375 5738 3076 3283 
4500 2609 5287 4054 3810 2765 4407 2604 4234 
5371 2384 4436 2456 3883 4122 5231 2903 2713 
3728 4397 3044 3067 4924 4495 5842 3184 5194 
2770 2900 4836 6051 4906 4169 5435 5565 4593 
4149 4788 3397 2601 3662 5058 4386 5980 2281 
5575 5831 4300 4550 3995 2254 4700 2289 16706 
18234 5669 3325 5350 4939 5515 29871 4075 2359 
5079 4365 5106 4353 3569 2462 5323 4289 2840 
4718 3065 4201 6095 4417 3994 5622 4411 3422 
2752 2715 2328 2871 5593 2491 2760 5532 3818 
3421 4641 5156 3642 3502 6120 5395 5351 3756 
6067 3187 4259 5560 3206 3270 3749 3564 4573 
3423 2381 3170 2392 28480 3032 3344 4740 2728 
5841 5635 4220 4451 2960 5464 3417 2918 3877 
3861 4934 4897 4419 4335 4918 2266 2605 3182 
2318 3193 4646 5127 4043 4921 3350 5242 29769 
5584 5920 2363 4341 2331 2882 5088 2874 2442 
5321 5478 2487 29145 3674 4014 4033 3836 2800 
3157 4658 4502 4950 2543 3360 4271 3194 3786 
2809 4131 6086 6156 5170 2570 4639 3918 5839 
2334 3480 3638 4886 3121 3259 2353 3757 30752 
5352 3366 4771 3908 2495 3219 3777 4237 5430 
5684 5523 4120 5803 5223 2639 3676 5396 6158 
4111 5908 3611 3215 3389 4079 5887 29300 4815 
3925 2646 4529 3099 6114 2747 4507 4272 2623 
4770 4632 5713 3774 3527 2906 3948 4834 2867 
4762 3513 5719 3653 4284 2718 5799 5789 6193 
3376 3145 2292 5990 3249 2727 5917 5339 4086 
2997 3028 4360 2711 3482 5642 3961 3340 4032 
2345 3342 6139 3173 4485 2929 3699 2684 5767 
4044 5269 4191 5640 5594 2564 4474 30872 2577 
5691 5182 3606 5895 4927 3277 3466 4202 3341 
2831 4388 2245 4095 3794 3681 5004 2704 4395 
4194 2942 5745 3981 4536 5519 6016 3554 3175 
5951 3004 4227 4930 2963 3797 5135 2510 3336 
4288 5582 2732 5948 4160 3649 5486 2744 2282 
5207 4426 5265 5971 4472 4948 2419 5568 5431 
5740 3840 4748 5213 2476 4010 5788 2822 5756 
4456 2723 2325 2302 2968 2365 4457 5357 3766 
5280 3940 6218 2731 3197 3680 2863 2412 2333 
3485 3189 5807 2851 3721 3730 2306 4517 5866 
5621 4301 3402 3949 6103 4679 4672 3870 3855 
3006 3795 2710 4140 2249 3893 2571 5534 3264 
4285 3975 5282 5578 5750 2414 5397 5177 6022 
4772 4422 2837 4110 4230 5200 4520 4830 4383 
4279 3177 4699 4644 6137 3394 5765 2865 6132 
2291 4749 5268 2835 6013 3682 4620 2327 2730 
3851 3814 3457 3588 4956 4781 5650 3632 5645 
5379 2818 5467 6021 3943 17092 4158 5155 18094 
4104 5860 18115 4380 6216 2226 18200 4346 5818 
4475 3347 6123 29196 5657 6049 4179 2622 4159 
4294 4092 5678 6098 28793 3742 2945 5949 5377 
3491 3211 5639 5653 3151 3751 3902 30821 4460 
28390 3573 5601 5855 5991 2423 2315 3186 5221 
2402 2624 3586 4375 6096 29449 29683 2531 5258 
5723 2554 5419 2720 4248 5293 5609 6052 3060 
5585 4211 4958 2705 3162 6143 4831 4073 4316 
5919 5779 4100 3618 4671 3050 3928 4998 5206 
5346 6147 2469 5718 3345 4853 4344 3203 5624 
2596 2508 6169 6088 5394 4782 3333 5649 5427 
3320 2585 2468 4531 4933 28471 6180 2260 2938 
3387 6155 3287 3744 4746 2946 3760 6001 2321 
4031 5455 4133 3891 5761 2551 4814 2537 2696 
3252 4603 5724 6008 5043 5483 3409 3537 2278 
2860 2771 3051 3567 3973 5651 3022 6212 4123 
3176 3396 5410 4214 5322 4978 3332 30747 3755 
3135 3677 2258 2641 4707 5421 5674 2735 6093 
5134 5114 2481 6210 2400 2578 4428 3273 2745 
4093 5143 5032 2250 6048 2354 3873 6129 4238 
4599 4156 3471 3353 4967 3720 2323 5735 3378 
3807 2262 2955 5979 2953 2584 5109 3790 3038 
4434 4012 5313 2850 2670 2382 3631 3362 5747 
4744 5822 4588 4098 4675 4146 6019 2264 5627 
2893 4900 4498 2805 3374 2522 5960 4857 3933 
4539 2801 5553 4090 4545 4414 2504 4199 6127 
6047 5025 3608 5144 2939 4629 4085 3445 3515 
4157 3282 5450 2231 3675 6138 3793 2879 5024 
4971 2268 2549 4128 3407 5481 4173 3167 3813 
2858 2598 4402 4631 3817 2899 4556 5509 3383 
4026 5236 3966 5081 6104 3281 5999 4852 4249 
3450 3368 5754 4733 2376 5289 2795 4705 5333 
3424 3280 4051 5501 3825 3936 5762 2276 3939 
5311 5044 2418 2734 3911 2613 5552 6073 4891 
3326 3556 4892 4363 5014 3929 2870 3859 3446 
3430 2645 2693 5769 2348 3854 3700 4810 5615 
4915 4988 5848 3284 3289 5332 28537 3013 3692 
2775 5715 4590 4731 3553 6178 4390 3509 3602 
4528 3901 2628 5238 5262 5943 5682 6234 5668 
2435 6145 5820 4103 2303 2724 3133 5239 3739 
5008 6100 3511 4087 4321 4837 4635 2452 2729 
5362 4408 3191 5840 4797 2517 3442 3716 17324 
2691 3587 5910 18370 16299 3865 5574 2662 3427 
2923 5758 2778 4314 3293 18303 5770 4215 3225 
5193 3770 4077 2701 5576 6070 3651 4444 3805 
3655 5953 29667 5681 4188 4619 5192 2247 3085 
4887 2225 3239 2342 3758 3139 3812 5174 3607 
4941 5923 2932 3100 5390 5850 2872 3168 2607 
4134 3993 2518 4920 3438 2441 5912 2568 3179 
2640 3188 5666 3896 2320 5111 5073 5220 5673 
3897 3279 5042 3185 5267 6005 4821 2807 2360 
5148 3574 3155 3525 5707 2525 2592 4378 4552 
29137 3054 4315 6219 2916 3693 4072 4538 2438 
4630 6204 5273 2975 4842 4112 2913 6167 5120 
3745 3164 3163 3122 5366 5137 5679 5118 5428 