# vtk DataFile Version 5.1
Generated by LIGGGHTS
ASCII
DATASET POLYDATA
POINTS 50000 float
-0.0064187 -0.0287588 0.000494618 -0.00543451 -0.0289798 0.00049946 -0.00443968 -0.0291558 0.000498615 
-0.00293102 -0.0292991 0.000499797 -0.00370758 -0.0292565 0.00117168 -0.00187989 -0.0294358 0.000494025 
-0.00101288 -0.0289389 0.000499197 -0.000175298 -0.029485 0.000499761 0.00071392 -0.0289823 0.000498437 
0.00160299 -0.0294399 0.000499147 0.00245373 -0.0288859 0.000499797 0.00336453 -0.0293002 0.000498783 
0.00434518 -0.0291049 0.000499752 0.00602943 -0.0288443 0.000499797 0.0050495 -0.0290508 0.00120735 
-0.00938283 -0.0279253 0.000499608 -0.00836105 -0.0282822 0.000496933 -0.00762256 -0.0275746 0.000510779 
-0.00739442 -0.0285442 0.000498686 -0.00651465 -0.0276209 0.000497724 -0.00558089 -0.0279743 0.000499107 
-0.00459787 -0.0281516 0.000498859 -0.00380247 -0.0275301 0.000494807 -0.00367005 -0.0285203 0.000496764 
-0.00283672 -0.0279653 0.000499341 -0.0019109 -0.0284267 0.000498196 -0.00104019 -0.0279397 0.000497512 
-0.000158699 -0.0284199 0.000498843 0.000705656 -0.0279064 0.000499797 0.00158456 -0.0283879 0.00049866 
0.00245145 -0.0278652 0.000504191 0.00334794 -0.0283046 0.000497629 0.00425256 -0.0278695 0.000499372 
0.00513345 -0.0283494 0.000499729 0.00599475 -0.0278413 0.000499797 0.00701007 -0.0285024 0.000496057 
0.00770403 -0.0277419 0.000497927 0.0085837 -0.0282097 0.000516745 0.00772126 -0.0284635 0.00119368 
0.00952099 -0.027825 0.000499797 -0.0133339 -0.0262995 0.000499797 -0.0124135 -0.0267565 0.000497424 
-0.0114428 -0.0271759 0.000498014 -0.0104195 -0.027361 0.000499797 -0.0104106 -0.0262754 0.000499464 
-0.00954783 -0.0268052 0.000496053 -0.00859803 -0.0271697 0.00049818 -0.00768178 -0.0265799 0.000496299 
-0.00668069 -0.0264748 0.000494916 -0.00704197 -0.0271803 0.00122075 -0.00577922 -0.0269447 0.000498584 
-0.00468964 -0.0270747 0.000495132 -0.00386684 -0.026509 0.000497396 -0.00297982 -0.0269679 0.000495072 
-0.00199946 -0.0274185 0.000498068 -0.00196413 -0.0264202 0.000500579 -0.000176066 -0.0274193 0.000499099 
-0.00108125 -0.0269432 0.000496163 -0.000171765 -0.0264165 0.000498938 0.000700275 -0.0269043 0.000498767 
0.00157432 -0.027388 0.000499054 0.00243905 -0.0268629 0.000496198 0.00155908 -0.0263884 0.000498886 
0.00333327 -0.0273081 0.000497562 0.00331823 -0.0263109 0.00049864 0.00423061 -0.0268698 0.000495003 
0.0050685 -0.026327 0.000502412 0.00510946 -0.0273462 0.000498835 0.00594821 -0.0267975 0.000497987 
0.00682171 -0.0272787 0.000505296 0.0068374 -0.0262762 0.000496424 0.0077195 -0.0267446 0.000506774 
0.00869321 -0.0272172 0.000499055 0.00960893 -0.0268059 0.000497996 0.0104416 -0.0273623 0.000491613 
0.011295 -0.0267555 0.000497108 0.0120083 -0.0269345 0.00117441 0.0131368 -0.0263997 0.00049969 
-0.0152967 -0.0252113 0.00050008 -0.0144219 -0.0257273 0.000498803 -0.0135579 -0.0252263 0.000498441 
-0.0114455 -0.0261786 0.000496555 -0.0124164 -0.0257572 0.000494246 -0.0115092 -0.0251825 0.000496703 
-0.0105092 -0.0251929 0.000499797 -0.0096049 -0.0256202 0.000499598 -0.00876433 -0.026183 0.000497334 
-0.00892062 -0.0253808 0.00121637 -0.00823258 -0.0252684 0.00049972 -0.00810478 -0.0260651 0.00123522 
-0.0072883 -0.0256602 0.000499797 -0.00642973 -0.0251273 0.000499642 -0.00584054 -0.025935 0.00049858 
-0.00537766 -0.0253462 0.00115954 -0.00481634 -0.0260586 0.000499797 -0.00468127 -0.0250673 0.000499008 
-0.00374714 -0.0255188 0.000498146 -0.00285852 -0.0259749 0.000497839 -0.00200641 -0.0254221 0.000498625 
-0.00104761 -0.025935 0.000498744 -0.000193707 -0.0254137 0.000498296 0.000685251 -0.0259035 0.000498805 
0.00154438 -0.0253889 0.000497913 0.00242518 -0.0258626 0.00049994 0.00331436 -0.025313 0.000499268 
0.00419727 -0.0258376 0.000497304 0.0050786 -0.0253272 0.000498201 0.0059591 -0.0257992 0.00049928 
0.00685447 -0.0252773 0.000499207 0.00862372 -0.0262217 0.000547854 0.00773576 -0.0257473 0.00049896 
0.00858565 -0.0252244 0.0004954 0.00951258 -0.0257671 0.000498929 0.0104359 -0.0262459 0.000496559 
0.0103674 -0.0252508 0.000496181 0.0112615 -0.0257064 0.000652808 0.0121314 -0.0262083 0.000499309 
0.012103 -0.0251929 0.000493777 0.0130799 -0.0254027 0.000507259 0.0140538 -0.0259328 0.00049915 
0.0149215 -0.0254297 0.00049964 -0.0169616 -0.0241074 0.000499548 -0.0161411 -0.0246774 0.000499769 
-0.015273 -0.0241807 0.000499469 -0.0144298 -0.0247174 0.000498132 -0.0135629 -0.0242251 0.000496327 
-0.0126707 -0.0247692 0.000497226 -0.0118263 -0.0242347 0.00049678 -0.0111003 -0.0245203 0.00112219 
-0.0100819 -0.0242775 0.000498938 -0.0109504 -0.0237529 0.000499883 -0.00915894 -0.0247256 0.000499806 
-0.00831642 -0.0241878 0.00049956 -0.00743104 -0.0246704 0.000498844 -0.00655114 -0.0241352 0.000499521 
-0.00556945 -0.0246028 0.000494724 -0.00472322 -0.0240636 0.000496483 -0.00379569 -0.0245217 0.000497555 
-0.00290805 -0.024978 0.000498287 -0.00293772 -0.0239792 0.00049871 -0.00204427 -0.0244238 0.000496762 
-0.00113254 -0.0249401 0.000496907 -0.00111784 -0.0239258 0.000496283 -0.000208402 -0.0244098 0.000497436 
0.000669729 -0.0249049 0.000498308 0.000664298 -0.0239061 0.000498214 0.00154282 -0.0243887 0.000499186 
0.00242149 -0.0248638 0.000498944 0.00245585 -0.0238648 0.000499659 0.00334812 -0.0243169 0.000545643 
0.00419887 -0.0248383 0.000499227 0.00422325 -0.0238389 0.000491464 0.00510111 -0.0243237 0.000494574 
0.0059788 -0.0247978 0.00049802 0.00595214 -0.0237966 0.000497652 0.00683055 -0.0242725 0.000504302 
0.0077075 -0.0247492 0.000496243 0.00855828 -0.0242282 0.000495016 0.00945482 -0.0247303 0.000499828 
0.0103384 -0.0242451 0.000495708 0.0112382 -0.0246823 0.000499797 0.0121412 -0.0241952 0.000498278 
0.0131375 -0.0244056 0.000499484 0.0140414 -0.0249363 0.000495037 0.0140219 -0.0239398 0.000497523 
0.014904 -0.0244309 0.00049972 0.0158318 -0.0248861 0.000499282 0.0157714 -0.0238889 0.000499497 
0.0166761 -0.0243151 0.000496069 -0.0180665 -0.0225706 0.000499118 -0.0177734 -0.0235254 0.000499184 
-0.0169071 -0.0230287 0.000491614 -0.0160839 -0.0235957 0.000499541 -0.0152105 -0.0230528 0.000498315 
-0.014401 -0.0236502 0.000499696 -0.0137633 -0.0228802 0.000497847 -0.0127003 -0.0237212 0.000498474 
-0.0127445 -0.0227223 0.00049963 -0.0118482 -0.0232008 0.000497656 -0.0109563 -0.0227532 0.000498971 
-0.0100873 -0.0232489 0.000499422 -0.00920332 -0.0237162 0.00049954 -0.00921517 -0.0227168 0.000497683 
-0.00832839 -0.0231761 0.000497552 -0.00746092 -0.0236711 0.000498071 -0.00748053 -0.0226481 0.000499726 
-0.00660934 -0.0231377 0.000499719 -0.00558837 -0.0235657 0.000496029 -0.00575415 -0.0225801 0.000495386 
-0.00472601 -0.0230525 0.000498315 -0.00384682 -0.0235268 0.000494812 -0.00294965 -0.022981 0.000497429 
-0.002007 -0.0234128 0.000497679 -0.00113949 -0.0229264 0.000587907 -0.000241961 -0.0234124 0.000497002 
0.000629947 -0.0229067 0.000496795 0.00151969 -0.0233895 0.000497424 0.00240183 -0.0228664 0.000497057 
0.00330574 -0.0233207 0.000497466 0.00418296 -0.022842 0.000498528 0.00507471 -0.0233177 0.000497226 
0.00592677 -0.022796 0.000499281 0.00680531 -0.0232715 0.000499469 0.00768223 -0.0237494 0.000497633 
0.0076589 -0.0227519 0.0004993 0.008536 -0.0232306 0.000498152 0.00942483 -0.023731 0.000498453 
0.00952017 -0.0227378 0.000498123 0.0103819 -0.023241 0.000498803 0.0112781 -0.0236812 0.000496063 
0.0113265 -0.0226824 0.000499688 0.0121836 -0.0231967 0.000499595 0.0131764 -0.0234079 0.000517329 
0.013124 -0.0225709 0.00105872 0.0140284 -0.0230076 0.000854983 0.0148801 -0.0234326 0.000516928 
0.0160894 -0.0229421 0.000498149 0.0166997 -0.0234955 0.00106264 0.0171124 -0.0227838 0.000496536 
0.0174906 -0.0237353 0.000499616 0.0182216 -0.0231607 0.000866838 0.0189551 -0.022589 0.000499604 
-0.0200406 -0.0216438 0.000502191 -0.0190776 -0.0224823 0.000499787 -0.0190613 -0.0214559 0.000497885 
-0.0180414 -0.0215729 0.00049971 -0.0186008 -0.0219801 0.00122116 -0.0170284 -0.0220336 0.000496783 
-0.016373 -0.0212803 0.000496949 -0.0164035 -0.0222826 0.00123246 -0.0157504 -0.0221127 0.000497928 
-0.0147324 -0.0221498 0.000499797 -0.0137475 -0.0218812 0.00049892 -0.0127612 -0.0217228 0.000499171 
-0.0118614 -0.0221961 0.000496013 -0.0109812 -0.0217259 0.000496405 -0.0100956 -0.0222493 0.000498011 
-0.00923577 -0.0216994 0.000494871 -0.00836252 -0.0221791 0.000495338 -0.00751074 -0.0216285 0.000499734 
-0.00663715 -0.022114 0.000499898 -0.0057325 -0.0215265 0.00049966 -0.00381758 -0.0224878 0.000497744 
-0.00486148 -0.0220618 0.000499803 -0.00394974 -0.0214998 0.000494483 -0.00295414 -0.021981 0.000499792 
-0.00204759 -0.0224141 0.000499583 -0.0020759 -0.0214149 0.000499447 -0.000286836 -0.0224149 0.000496566 
-0.00116069 -0.0219315 0.000498331 -0.000249663 -0.0214173 0.000499429 0.000621109 -0.0219086 0.000497162 
0.00151876 -0.0223914 0.000497775 0.00148551 -0.0213923 0.0004984 0.00237136 -0.021867 0.000497733 
0.00327044 -0.022324 0.000497833 0.00324668 -0.0213269 0.000498497 0.00416479 -0.0218447 0.000498901 
0.00504411 -0.0223183 0.000498977 0.00501977 -0.0213191 0.000498759 0.00589651 -0.0217976 0.000498586 
0.00678723 -0.0222595 0.000499716 0.00677472 -0.0212587 0.000495569 0.00776012 -0.0217556 0.000500021 
0.00864241 -0.0222225 0.000495705 0.00951412 -0.0217464 0.000595665 0.0104339 -0.022232 0.000498845 
0.0114148 -0.0216856 0.000499747 0.0122825 -0.0222023 0.000491722 0.0131704 -0.0217481 0.000494708 
0.0141129 -0.0220749 0.000509121 0.0149392 -0.0215162 0.000499491 0.0151844 -0.0224838 0.000497947 
0.0160213 -0.0219429 0.000496703 0.0170051 -0.021792 0.000525454 0.0179655 -0.0222644 0.000498823 
0.0178523 -0.021272 0.000493137 0.0188133 -0.0215402 0.000498478 0.0197317 -0.0219193 0.000596992 
-0.0215733 -0.0201116 0.000499392 -0.0208714 -0.0208239 0.000499797 -0.0198938 -0.0206085 0.000499129 
-0.0188363 -0.0200046 0.000499797 -0.0185613 -0.0207962 0.00105385 -0.0176888 -0.0206394 0.000494789 
-0.0171636 -0.0212265 0.00110274 -0.0168322 -0.0200259 0.000499797 -0.0152438 -0.0212457 0.000496414 
[...]
POINT_DATA 50000
FIELD FieldData 3
id 1 50000 int
26894 41133 20429 29895 18460 12043 45890 26749 41763 
32099 24364 16398 20590 17901 28448 7745 25503 18457 
37146 19972 48619 18575 16954 36581 42674 22619 41211 
30982 42465 3611 23178 35691 37046 29152 12278 49223 
32295 26736 45497 20884 29437 20435 21036 32662 45391 
33998 17239 32630 43304 24466 41939 41889 34659 10840 
28098 12057 17464 7873 17981 23700 47380 28434 43516 
42071 20231 33229 45835 33666 24139 40761 34529 30376 
35055 33868 20252 40885 24784 41983 28400 24305 42607 
36414 29019 29124 33491 21231 48694 33659 20385 16077 
45590 45278 35928 17854 36590 29925 9345 48404 20549 
20240 41386 11065 29849 36994 35916 32062 36776 45876 
46945 46376 25478 36743 28135 36200 28137 45395 28568 
36839 49119 46826 10072 4963 29312 36715 9096 20581 
36329 7567 46090 32518 25613 47096 3139 24600 3140 
9701 48271 11303 23250 28719 48639 32358 47660 45852 
49748 30738 49867 28901 21513 26947 40772 23812 29330 
34726 48219 33315 35020 30736 48480 49066 41717 30708 
48343 41125 33569 33140 20462 21413 32894 36607 11504 
12184 30745 32819 49702 36578 45193 46295 36986 11990 
11814 3596 37197 8630 36332 10040 34423 36687 30898 
32476 30609 49129 30488 33277 28147 28643 36075 47220 
32166 45156 28724 32199 25721 36679 42145 36076 32637 
37369 25750 33504 36593 25619 28022 36189 37186 49184 
20403 28304 30270 36350 46857 30771 8604 29807 28667 
29106 17089 23308 44597 9167 5536 34458 7396 9003 
8012 10850 34146 7971 975 5666 35699 32763 7801 
34183 10819 48435 9407 5193 29854 48431 34178 32480 
30259 36950 29230 21618 48666 35784 29767 26792 48357 
45367 33039 29116 33871 30761 26514 26066 37135 32623 
34049 32241 29009 30330 30417 29489 33783 10167 25462 
28384 41222 11880 37204 47126 5604 45855 5606 18607 
10077 33796 36867 4557 7685 32376 8122 11769 8713 
12364 8545 33738 8469 48416 32534 33853 32344 46359 
7917 36533 11947 6202 41019 33574 46532 12394 47525 
29356 37267 49898 49539 35107 35702 36370 36747 28663 
33391 29927 32059 26465 30762 28318 28784 30539 32871 
29316 36891 29499 30177 19614 36703 35912 29782 29869 
11143 7381 37355 36301 10783 32857 3785 11828 3812 
4549 6169 4002 32401 4345 11060 9086 35061 35089 
32773 6049 33601 4353 37206 30126 7744 5818 30727 
29410 33876 25713 36505 28380 11227 34671 32677 33565 
28467 8305 35846 36111 36946 37180 25597 25817 34949 
27018 29016 29937 28099 30971 25495 25657 26161 36209 
31066 29817 33581 32931 33837 33735 28462 45885 49432 
8607 31118 43251 34917 4453 12294 5249 7974 829 
5855 548 11601 3863 8011 3478 4188 8834 8431 
5601 779 7507 11178 10183 5725 7979 34478 11838 
4475 5657 1452 8284 26059 30994 29224 37233 28834 
32106 36000 35816 34667 25923 34878 26331 28298 30620 
34973 30592 26056 25543 26203 28164 26285 26106 26786 
30734 30577 29339 36158 34298 28888 11201 45264 45154 
9668 43063 47178 9886 9419 7539 32129 7235 8985 
8310 1256 7939 5500 5326 1371 5292 6057 575 
3828 1368 3428 1409 1683 527 3770 643 3555 
1940 4626 29196 4135 5557 2122 7686 37278 36961 
27010 28715 26988 32302 34698 26415 32051 33862 26631 
34934 25969 26803 27065 25460 25994 31108 26809 26227 
26609 25525 29218 27040 28506 28499 28671 29974 25774 
28538 33060 33252 33637 28326 24178 45429 49013 24158 
4773 4532 7617 11560 35840 5637 6167 1011 4968 
32440 969 4998 2060 1913 5090 1841 1423 1664 
843 1143 1131 873 1085 1489 1590 1137 1702 
3367 4406 1490 3583 8933 4077 5670 1854 3967 
29627 10189 27016 34868 26996 34651 26363 25592 27003 
27026 30830 28485 25489 26011 25584 27070 26574 28540 
26763 26776 30431 30770 27063 25879 30793 30854 33657 
29658 41043 20398 17867 36144 3421 11324 36549 43017 
1145 3213 4419 33384 8377 4519 5120 715 6195 
516 2117 1142 826 1220 1744 1771 1737 521 
1578 1518 2073 574 1906 4444 2221 868 5377 
927 28829 9631 26860 1024 30109 2192 9520 29620 
4365 29466 25722 28972 26385 26813 26919 25999 25426 
25411 25383 25561 26058 26293 25601 25904 26517 25905 
26741 26391 26222 29932 28139 29447 30150 27089 35658 
21150 34774 29593 41246 49916 28695 16883 11547 9957 
9006 34670 48741 33437 4907 42787 35781 5892 8710 
8392 9530 1778 5605 1157 1399 555 1743 1654 
2149 577 619 1937 1823 670 1839 977 2216 
1408 834 708 1093 4130 2125 26240 5811 9208 
3698 26446 26902 26494 26001 26434 26366 26827 26255 
25537 27094 26211 26842 26349 26225 25878 25522 25680 
26721 25623 25649 26688 26138 28307 25788 28706 29577 
30922 29354 37179 48992 36072 28290 33282 47405 36293 
12352 29812 22283 9786 41253 46503 913 3894 8474 
7612 3565 4667 1772 2140 1656 1523 925 617 
1191 866 1259 1008 1999 923 1466 1879 4888 
1407 5662 946 600 3655 1519 5915 4447 1539 
632 25755 25940 25682 26620 26678 25578 25554 25598 
26232 26388 26351 27012 26699 25799 25653 26164 26360 
25542 26003 26790 26829 25403 33046 26160 26378 29651 
29144 32329 49780 29476 36672 35725 46087 24265 41324 
45514 18287 4580 42951 20344 48592 10032 8269 49746 
8827 831 1363 3204 7528 5886 1040 3888 1469 
685 1665 1098 2197 654 709 2187 2041 1472 
1764 804 2011 764 1391 1289 1140 557 1591 
1532 1732 2098 1638 26260 25930 27015 27102 26959 
1918 25449 26462 26421 25433 25496 26010 25779 25532 
26982 25848 25900 25893 26970 25827 25776 25742 30156 
27079 30451 31054 31103 33227 29102 30215 32691 48235 
49338 28763 41185 41016 34397 20617 34732 30448 20193 
7709 36817 45948 5877 30162 5571 7703 7466 4148 
5511 770 5020 11115 716 3838 2185 1276 761 
2154 1332 587 1521 1351 1055 1889 1315 1644 
1478 2153 1613 1592 1091 26599 1265 1094 851 
2002 1309 1252 1293 25786 26920 25873 25600 25997 
25887 26319 1495 26468 27084 26180 26924 26516 26604 
25665 25805 25501 25782 25914 30351 26704 30118 34718 
30266 30490 33832 31055 33672 45707 34418 32570 29211 
34849 40803 36157 9459 42205 34147 4814 36047 28738 
9054 9732 35695 34111 9629 45695 4442 8371 4604 
36295 1084 9017 4498 3533 786 10788 684 3813 
682 2037 1158 710 584 561 2180 904 1420 
1154 1192 2077 1175 25696 1845 2092 1344 26311 
26733 1640 26333 25895 25577 25751 26257 25959 26145 
25880 26359 26354 25541 25976 25925 26445 25948 26568 
26379 25387 26015 26632 26205 34378 35924 25938 29450 
30457 48318 46444 48468 34521 34635 30848 12257 21661 
41975 42011 13028 49141 45848 33104 33847 29868 867 
4999 4463 5690 5235 3342 7934 10989 11242 3832 
12145 5847 1311 1805 815 1004 1434 1864 1081 
1193 979 2141 1675 1070 960 1238 2188 1700 
1237 579 1508 972 901 1383 25621 2208 26615 
2110 27036 1246 26910 26289 25468 25646 26013 25821 
26795 25991 25945 26653 25903 26912 26414 27106 26509 
25874 26165 25421 25920 25419 30224 37249 48990 33646 
20601 46843 45369 45236 20043 48557 35981 12161 21631 
21219 33256 16234 5814 10903 5730 4707 42040 46122 
43642 43308 16774 46816 45380 45357 28460 7978 12276 
7928 845 9656 8761 11718 706 5569 2166 982 
2143 1291 806 1711 1101 1956 1857 610 597 
1886 803 1394 2151 25809 27041 879 25491 26129 
25954 25952 25612 27051 26460 26304 26184 26501 26888 
26495 26156 26323 26978 26100 29219 25683 25365 27060 
26847 28746 33754 32392 36116 48304 35985 32809 42703 
47358 49620 46415 20492 40673 24620 7554 34716 43155 
34185 21709 48320 10215 42661 29908 33086 45490 37338 
49626 37134 44607 32515 8152 9647 9793 5825 8641 
695 3734 5554 4705 964 1096 1092 607 1978 
1541 1905 789 2105 1503 1941 601 543 1780 
698 1661 1556 713 1515 1488 606 566 1273 
540 2199 1522 1647 25871 25855 1253 26565 25956 
25459 26456 26007 26681 25573 26157 26891 25364 29438 
26153 25983 29819 30603 25608 30576 33594 26206 37358 
34792 49047 24761 43160 3683 48784 49643 18192 20426 
11969 47244 46113 47209 7430 49990 44908 26515 45854 
11507 28218 44784 9818 45969 20758 30428 30764 41450 
34502 3499 12165 4094 8943 11264 7731 5794 1027 
7543 2065 995 1497 2040 2184 1916 1038 13660 
1813 1533 1883 14511 1551 891 805 26425 1470 
1180 26723 25804 1172 26280 951 25748 26068 26700 
26895 26443 26312 26091 26862 26179 26439 26253 26596 
26807 25912 25745 29495 31023 25835 35841 29624 24749 
25811 48241 22537 45644 48527 42612 41960 4138 21106 
41955 16362 36782 30979 17472 12196 28213 49738 43479 
11763 36926 9861 1861 45410 34848 9315 4614 11469 
8014 16414 34786 5166 4591 24269 10964 8258 1785 
1695 4020 4089 7655 1053 9097 14335 2191 777 
13586 1051 14512 1430 1933 1427 1938 12981 1833 
2075 14169 13237 2160 638 13855 1662 26472 14361 
13529 2014 2218 1230 542 25889 519 39059 25864 
25579 38481 38080 27035 38330 30378 38406 26778 38427 
38020 49531 25607 48687 30977 32193 37312 42541 30847 
24396 20721 19973 30521 16565 48349 34497 4673 20013 
32334 30860 34938 3453 20777 28942 8602 23882 38389 
7810 4596 11050 4530 33043 11251 35058 36030 2156 
11903 17997 10997 7995 7310 4274 6106 766 3255 
1260 5089 5840 1263 2015 13752 14012 1107 12947 
14099 702 1552 38350 26357 26109 1152 25747 39580 
25520 38209 39039 38494 39664 39579 38994 26118 38211 
37991 26437 38830 26262 25445 25967 28960 28867 36068 
36413 35972 46329 35833 45342 46849 21607 45569 17534 
15736 17616 24741 47494 11655 17644 24726 21952 41811 
6065 24205 24338 4005 44876 18436 43117 17086 30996 
48325 7962 21415 28121 20265 32707 18206 20823 47153 
35810 23314 48591 36137 39217 31080 18083 36415 24228 
22479 19650 22105 3976 11068 21626 49351 22278 8753 
22273 21185 30228 4573 28140 9172 4843 42553 48403 
20997 40729 34133 7972 41856 28321 35105 18129 43380 
36024 14088 46678 32112 1562 42275 38972 30129 3912 
33802 19825 20297 21756 33279 48635 16232 11543 3556 
48947 47599 21254 44698 34947 1784 48881 30537 29309 
1601 23656 24295 5850 42851 42335 30088 20564 49472 
2177 4013 8562 20972 19840 32478 36031 18598 49623 
48999 5857 43482 10973 4637 46102 23710 18433 46684 
33413 13019 17359 48710 44899 20556 32595 18255 21389 
36945 36678 5210 24629 17633 8788 29505 47679 46461 
45586 18370 49033 11786 22445 41365 20896 40857 36227 
19800 6178 45147 21938 17150 16056 11459 38118 3295 
34090 46584 49353 30931 3311 7814 20301 25909 5622 
11052 34199 36651 49233 49611 49284 11330 23227 17339 
35685 30410 37397 4510 32846 17315 42010 17955 23389 
19969 21746 48807 41262 23684 19649 34863 3263 19714 
47383 38773 7246 48391 45501 25651 47212 36281 46031 
30963 21127 47491 23346 30583 41327 23646 23164 34634 
10995 20834 32593 13830 13290 6517 2569 49647 23324 
26252 11534 26553 8208 45254 37104 1689 18059 26622 
11662 7912 33489 21840 30649 34816 17843 26282 14213 
19763 11259 9659 21251 24644 13200 20708 32445 42943 
48759 23917 47312 35746 36327 26608 41783 4072 10969 
3302 7734 33551 37164 40689 5974 33123 9869 8467 
42459 32712 5615 33418 47198 21742 29341 18014 2607 
41036 33573 49981 7140 37235 8747 47031 46480 22329 
36374 46802 36381 49092 5895 34101 22528 47166 17279 
33725 12032 22062 41205 48572 16154 46494 15568 42998 
41954 3417 21449 23968 16361 28639 2150 41151 43480 
12076 17546 4885 10953 42262 35863 23903 47338 36985 
44635 11238 45750 4974 8184 17349 39216 30340 21426 
48590 20981 22137 36395 29314 32695 20317 49581 20154 
20683 5245 48328 44948 10960 49021 42807 22130 49442 
30967 9359 30918 11475 28578 47007 28662 33366 19932 
28233 34676 19687 24352 44987 18209 11444 46658 24027 
41603 41823 8266 18195 29947 30572 49198 25475 46145 
21590 25504 20036 12111 29423 48829 10161 28971 20714 
42926 20551 34927 15903 33718 19848 42844 11399 46308 
3131 45498 42248 35301 49792 32605 45023 23768 47281 
28527 19910 27506 33443 18098 34892 22552 29829 16566 
4208 17564 46650 15916 17249 15735 34608 44745 30533 
3163 7210 269 34414 11799 33356 36398 3361 5522 
8042 28900 28946 3822 29074 22238 48857 29546 10776 
43589 47463 21805 46302 39734 3481 32694 23458 22041 
26727 8579 6179 11140 35115 21082 23731 21391 34953 
17559 43137 5216 21950 18200 8991 42006 30358 17709 
7827 47388 16270 31591 34131 33124 35940 29539 32235 
49333 20204 33570 30921 29626 32107 28909 4872 24967 
35872 28683 16052 3593 30681 21560 2447 45399 25992 
7317 36758 7159 6223 5126 4817 32804 31004 5221 
29282 7464 9118 6705 36235 4291 29357 30089 23732 
4796 23840 15638 9756 8250 10796 49052 20359 48698 
34291 37214 10956 48494 43335 23449 15730 37366 6060 
3668 45108 28711 10987 30811 11963 27975 11220 20408 
49825 30881 17461 47064 3350 4607 49373 18169 48266 
24693 45237 32568 46139 25815 47559 28154 35854 36318 
29278 30380 30696 42884 26287 44599 48703 37171 49487 
48522 36092 23488 40872 1485 42738 15676 12102 41522 
30831 23327 2927 34578 29725 10005 5323 3506 9377 
4778 7988 4411 4289 45129 47361 28517 41995 44236 
23680 24487 34592 21679 9189 29203 17827 24442 33239 
33135 20291 48211 7333 48633 10118 9847 21773 42677 
49783 29722 23330 48439 45033 16156 45927 46597 36617 
20781 28079 32159 25390 32526 31068 37294 33361 32079 
29331 29033 29595 29291 25645 28780 48482 29475 21578 
43493 42410 21630 22639 7916 32741 35040 40917 3062 
18613 19809 3158 23441 10936 10007 1548 5476 955 
30684 11626 3288 1836 5949 5535 4134 7914 5076 
8019 1767 11624 46550 35692 21197 11301 33800 34982 
20198 21327 37020 17316 42046 11728 46573 41672 36392 
32371 35765 12095 11418 4993 34932 35737 45074 36066 
47283 49801 30599 28141 42409 18151 28033 43472 24046 
36474 37067 47070 16476 28520 46630 29298 32188 46931 
10871 32145 36251 36577 13171 32648 33066 32807 33933 
33073 36748 28548 34257 29388 26259 26305 26745 26343 
26967 28186 26665 29299 30630 32862 24885 11192 49088 
34065 42398 7289 32203 34912 36290 16824 18301 46948 
17330 46958 30418 34654 35943 2829 3717 341 3188 
1529 4487 1190 4505 5258 1659 1106 11855 3980 
3491 9068 36906 33611 5367 1826 30058 9021 1815 
1925 9063 28078 7605 4491 33877 7448 5264 49776 
46902 18079 3983 11501 15981 29285 32056 28256 23405 
42710 5003 43663 43322 36559 33762 36545 46761 29551 
26093 34509 7531 36356 31652 45729 28798 36828 46144 
32769 45849 41680 36001 48529 28626 34754 29026 29617 
28342 25766 28346 36676 25405 26308 28572 29714 26646 
25629 25908 25947 29621 26866 30493 26459 30050 29204 
24944 45244 9855 20855 22003 24847 23632 19583 21628 
24853 47440 34073 46149 32990 10154 33156 23908 6871 
42600 42683 4506 30081 33858 767 7281 91 3869 
2148 1345 4827 6220 3524 1349 1206 2132 1054 
1209 11882 1116 793 943 3544 33719 9944 9770 
696 30494 6135 794 5277 5782 11994 5623 10181 
3447 49352 4294 9580 34265 1544 24638 4619 8303 
8336 48625 37266 1364 29325 29117 37326 46046 4180 
45560 43263 35835 36684 5576 21033 36521 29210 28581 
29543 32920 29336 49999 36289 29120 29875 30683 33463 
25602 33766 34512 30350 25814 30353 25238 25883 26855 
25634 26818 26525 25582 27033 26168 26772 26534 30730 
25455 25714 25837 31018 28964 26367 29272 25962 9714 
42060 32494 35088 16153 23611 17645 29368 46051 11950 
45136 24092 24764 8188 3360 44707 49358 46675 44690 
33829 30871 41208 10063 29771 43173 5062 10736 3881 
5920 635 564 1078 1365 3740 5084 1868 1830 
3573 910 2211 1261 1462 926 649 1401 2196 
1179 1729 1148 941 34033 567 559 1100 4346 
1804 9575 33821 1451 1952 4369 5185 5050 1594 
49993 3347 24842 28126 36023 33310 45421 2066 7508 
21577 9632 29968 32455 29688 25812 36175 32737 34689 
27101 36463 36171 27045 36071 26751 26997 26591 29882 
28858 26938 25581 26053 26052 26720 33730 25417 26167 
26649 25461 25595 25466 26798 29395 30755 30318 30246 
30947 25220 36790 41224 20318 30395 41607 47017 34985 
20559 21957 38919 45697 45196 4037 32978 39072 35949 
28789 28945 5455 30966 3403 4128 19995 5568 9822 
22477 9165 48816 33289 36277 47214 12338 32760 7890 
7981 5171 32792 1633 4131 1245 547 505 4136 
922 1404 2172 1088 1542 938 653 2045 2163 
989 1212 1286 1074 693 589 738 565 1688 
3272 769 828 1241 1001 1842 3172 2083 4075 
1050 2131 9617 1471 8297 1010 3963 6123 1788 
9563 883 29611 914 2071 5124 4686 9922 2068 
26858 9275 3496 30825 35732 49394 4690 7933 1632 
35029 1307 32643 26095 30184 29740 30884 25794 26915 
26320 3706 29959 26018 26115 26660 27091 25567 25693 
28803 25637 25936 25866 26883 26461 25760 26144 26601 
26824 25395 27093 33979 29320 25457 25857 26543 31107 
26658 28815 25818 34614 28054 34735 28513 34966 44985 
29763 42965 48862 33179 7462 39190 47646 28919 37401 
23734 19805 36630 29840 42905 36045 47638 43077 44735 
42089 25310 5315 17085 47329 41574 1435 46036 9154 
37319 9559 11857 11954 34708 5691 2095 2004 1575 
1910 937 397 758 984 1442 1236 945 1936 
642 1895 1184 1973 763 839 1248 2097 1196 
1704 32242 751 830 616 5465 1138 5593 1267 
4099 1103 26278 8335 1226 739 29172 30028 25483 
29904 30092 33664 26473 1531 27022 1912 4627 25702 
26223 29755 26504 28457 26817 25367 26324 26764 25703 
26279 26761 25388 26322 27009 26040 26661 26376 26098 
26204 27023 26634 26559 25757 26683 26039 26521 26229 
32375 30729 34005 28842 32374 33306 32540 32601 48329 
33532 11209 48313 11739 41280 45615 8172 42196 21504 
45653 19957 7654 47634 7812 45311 46082 45821 33575 
19871 34394 20067 47662 37105 19302 21818 40787 46588 
47082 7598 46657 595 8774 21976 9877 11605 9522 
12325 5463 722 1625 1243 5474 9101 1577 1996 
1168 930 513 1199 637 1621 920 1745 2170 
520 1536 1555 1828 1436 507 534 1112 734 
1342 1959 1757 1036 2111 2062 700 1331 790 
1477 1812 1645 1319 663 1961 1786 915 835 
1218 4791 26467 28793 28406 26077 2209 30161 1579 
25728 26272 9506 5833 30551 1019 29739 25935 26643 
30958 8255 26102 25424 26345 26583 26315 25409 25539 
26147 26208 27055 26974 25723 26076 25732 26247 29579 
26961 25628 26348 28579 26508 30634 26292 26734 35022 
26671 29703 28024 28795 29876 28174 47047 29992 32004 
30111 42023 17752 29415 19629 24341 23868 42235 8678 
45778 21420 30515 20539 41698 18426 40740 23205 29969 
45631 39086 5819 49148 8609 45730 41342 46432 17869 
7770 46037 34189 33041 32087 33947 48297 31525 33392 
9235 28288 30209 8121 48397 9902 11334 11520 33940 
11984 5301 4900 7497 1475 2106 1455 1855 742 
1915 1039 1524 721 1334 591 1482 688 1618 
939 1792 1188 594 509 1712 26403 1922 993 
856 1189 848 726 12031 26753 1031 1595 1377 
28994 25816 1667 25918 4969 824 25477 26480 26685 
26564 25802 25484 26816 26670 25380 26930 26330 26602 
25875 26325 25633 26977 26983 25514 25927 27057 25839 
25884 26491 25536 25568 25768 34987 32681 30819 33522 
28684 26538 25510 23893 48421 28638 33180 20379 10798 
21460 23764 40595 42222 43098 29059 46467 19824 38781 
18207 20872 11530 33519 17924 41930 10034 562 46419 
4822 22798 15876 29190 5454 22545 18240 12343 34176 
10808 46610 43433 48217 672 36342 12277 32245 35984 
8394 17483 5123 32446 4898 5823 7503 3208 47304 
11902 3195 1493 8165 11012 12106 11250 1247 10047 
8173 2213 1447 9272 4449 1016 1690 1514 2056 
840 1341 1875 1616 603 978 1358 1652 1005 
1898 1431 2009 588 1559 1694 1155 719 899 
1903 1623 1707 1397 26230 1149 26457 1790 1132 
1882 1202 1479 1566 26288 1366 1748 25586 4171 
26768 1221 2059 25679 4247 26713 25599 26942 26442 
27061 26863 1079 25769 26732 26081 25675 26955 26836 
26162 26500 25946 26981 25919 26705 26672 26584 26893 
32474 26284 25830 25620 34824 45868 28219 26870 26310 
44610 26664 32431 47404 49707 45959 42342 23571 22202 
22004 33592 23969 9429 22400 43134 41250 45285 41017 
30618 8264 34515 41438 34013 11347 18459 47482 41449 
41275 46368 32678 23264 35824 43596 18084 18237 41217 
3214 7104 11086 33959 5283 14415 31932 45582 36591 
44807 23779 34500 32419 44717 32345 36358 7911 44773 
8174 8167 7230 30222 1294 1063 5187 3280 646 
743 5333 1770 1459 1049 1065 1829 971 634 
1568 1709 1725 1526 990 1225 962 728 970 
1848 1015 503 2085 1182 1443 26407 25869 38778 
1682 952 724 25413 26698 26028 26474 25759 26294 
26486 26914 26476 26610 26656 26624 1902 26174 25450 
25562 26990 25771 25921 25897 25690 26598 26572 26875 
25393 26692 27099 26107 49624 25603 25482 26531 33985 
46454 33212 45511 49082 30368 47138 20784 36352 22418 
20320 47690 24835 3707 9330 18179 11480 21922 34107 
6217 22210 4469 23664 43205 14436 40690 17846 18475 
18080 46009 24023 28735 7941 8857 34431 32378 531 
28846 48994 23446 28631 9995 32587 40818 31062 37354 
29359 4283 41273 33642 20626 28874 7322 30112 11783 
49152 34799 8968 32581 18011 4845 49572 32086 11481 
12118 7231 41875 1881 3886 5882 3488 4153 4456 
2220 3432 1336 636 1801 1337 1734 1986 6063 